          77
 Energy =    -2321.80899670 a.u.  Frame:     1 Step:     1 Geom:     1
C          -3.50493300     -0.98573200     -2.86898000
C          -4.30504200      0.27632100     -2.53116900
C          -4.55864700      0.53830500     -1.03625400
C          -5.29943100      1.87809700     -0.85485800
C          -5.50378900      2.31555500      0.60048900
C          -5.32346300     -0.59410500     -0.34507700
O          -4.49504000     -1.77149800     -0.15150800
C          -3.60430700     -1.71346800      0.84437400
O          -3.50254500     -0.80106500      1.64259400
C          -2.72309600     -2.96027900      0.88562900
C          -3.36050300     -4.01711200      1.79402700
N          -1.38669800     -2.60103700      1.36960500
P          -0.26816300     -2.04229100      0.25741700
O          -0.66831300     -2.24543200     -1.15500900
O           1.10326100     -2.75792600      0.70630400
C           2.02293800     -3.20128100     -0.31078100
C           3.12724300     -2.20195700     -0.56919400
C           3.93055800     -1.75045300      0.64476300
C           4.63003200     -0.47629700      0.11502200
C           3.60967700      0.03783800     -0.97330200
O           2.58640900     -0.98493700     -1.07443300
C           4.27188600      0.13202700     -2.29482800
N           4.70509700      0.20889500     -3.36759500
C           2.95725300      1.35418300     -0.67901500
C           2.68688200      2.42403400     -1.53493200
C           2.00974800      3.42066000     -0.81434300
C           1.86391300      2.95144000      0.48933000
N           2.45831200      1.68700800      0.55056600
N           2.53752700      0.93233500      1.68249500
C           1.97563600      1.49329700      2.72390700
N           1.32608300      2.68029200      2.81024900
C           1.26405000      3.40028500      1.69787800
N           0.63300900      4.60682800      1.73851600
O           5.86326700     -0.80975900     -0.47704800
O           4.86924100     -2.76423500      0.99697800
O           0.05561300     -0.51561700      0.72936200
C          -0.58396800      0.58962100      0.17265600
C          -1.27095600      1.44274000      1.03232600
C          -1.84591600      2.60451000      0.51673800
C          -1.74588300      2.89681600     -0.84550500
C          -1.06198000      2.02203900     -1.69265800
C          -0.46927000      0.86411600     -1.18953400
H          -4.05413300     -1.89651800     -2.61355700
H          -3.28701400     -1.01845900     -3.94288200
H          -2.55206800     -1.02095600     -2.33229200
H          -3.77033200      1.15015800     -2.92649400
H          -5.27358100      0.25131600     -3.05382300
H          -3.59123300      0.63158800     -0.53117400
H          -4.71152400      2.64223600     -1.37777600
H          -6.26956800      1.83754500     -1.37176900
H          -5.69505300     -0.28730000      0.63334300
H          -6.15760800     -0.94846100     -0.95650200
H          -4.57909300      2.19823300      1.17415800
H          -5.81094800      3.36632400      0.65125900
H          -6.27839200      1.72952900      1.10636500
H          -2.62269100     -3.34670500     -0.12888100
H          -2.72722300     -4.90768300      1.82304200
H          -3.46959500     -3.63152500      2.81378600
H          -4.35225900     -4.29311600      1.42157700
H          -1.43585200     -2.04560400      2.22019900
H           2.47145600     -4.12322500      0.06768700
H           1.47673600     -3.40962700     -1.23382700
H           3.81683100     -2.65575400     -1.30033800
H           3.25424100     -1.50265200      1.46397500
H           4.76651500      0.28183200      0.89035400
H           5.09613200     -2.65578400      1.93299100
H           6.08538100     -1.69633600     -0.13180800
H           2.96798600      2.45276500     -2.57775700
H           1.66432900      4.37164100     -1.19327600
H           2.03216800      0.90917000      3.63776300
H           0.07871800      4.76404000      2.57040800
H           0.23764300      4.95501400      0.87644600
H          -1.34592400      1.19194200      2.08312300
H           0.08256400      0.18354000     -1.82479800
H          -2.38363000      3.27319700      1.18210700
H          -2.20515700      3.79623100     -1.24595400
H          -0.97563600      2.24406500     -2.75195600
          77
 Energy =    -2321.81085450 a.u.  Frame:     2 Step:     2 Geom:     2
C          -4.69387300      2.24539400     -1.18175400
C          -4.42530500      0.82421400     -1.68032800
C          -5.48698900     -0.21218000     -1.26664800
C          -5.21928500     -1.55794500     -1.96775700
C          -6.22007800     -2.66826600     -1.63724100
C          -5.63827500     -0.37340900      0.24948100
O          -4.57441500     -1.19649300      0.79778900
C          -3.51252600     -0.59916500      1.34045300
O          -3.38595700      0.59791400      1.51864600
C          -2.46751600     -1.63136700      1.77142100
C          -2.61199900     -1.91022200      3.27007100
N          -1.11788500     -1.15492000      1.48526600
P          -0.58873100     -1.11889200     -0.09310200
O          -1.63249800     -1.30663300     -1.12991000
O           0.58957200     -2.22337800     -0.09881600
C           1.26640700     -2.55700100     -1.32722900
C           2.72313900     -2.12174100     -1.30241100
C           3.47874800     -2.48520600     -0.02438200
C           4.58568600     -1.40422900      0.06710100
C           3.96811600     -0.19064900     -0.71390600
O           2.79970400     -0.70437000     -1.40339100
C           4.91291200      0.30093100     -1.74089700
N           5.58253100      0.74904800     -2.57463000
C           3.50516200      0.99032700      0.09614000
C           3.49830000      2.34659300     -0.24399200
C           2.65998300      3.03392600      0.64876700
C           2.14451400      2.08674200      1.53263500
N           2.70827400      0.85237800      1.19519100
N           2.47564000     -0.30410200      1.87060700
C           1.56817300     -0.19278900      2.80458400
N           0.80993400      0.88708300      3.12655300
C           1.09913700      2.02225900      2.49467100
N           0.36200500      3.13050400      2.77734800
O           5.75392200     -1.85364700     -0.57673200
O           4.03178900     -3.79284000     -0.17735000
O           0.28378300      0.24124400     -0.17285000
C          -0.12979500      1.44375800     -0.74168900
C          -1.11347200      2.21397100     -0.12826200
C          -1.39602300      3.47657100     -0.65465000
C          -0.70905900      3.94719400     -1.77596900
C           0.25958000      3.14555200     -2.38473700
C           0.55597300      1.88476100     -1.86864500
H          -4.56556800      2.31958400     -0.09721800
H          -3.99380100      2.94970600     -1.64177200
H          -5.71168700      2.57231900     -1.43281500
H          -4.39093600      0.83067500     -2.77789200
H          -3.43407600      0.48845100     -1.35685000
H          -6.46847200      0.16232700     -1.60280200
H          -5.22672100     -1.37364600     -3.04974300
H          -4.20287700     -1.88336500     -1.71983500
H          -5.64580000      0.58535000      0.76947200
H          -6.55002300     -0.92215100      0.49211400
H          -6.03791300     -3.55244600     -2.25802900
H          -6.14159400     -2.98322100     -0.59098500
H          -7.25409700     -2.34569000     -1.81639800
H          -2.64314500     -2.54575100      1.20220600
H          -2.44286400     -0.99177300      3.84288300
H          -3.61683500     -2.27933900      3.49779300
H          -1.87762600     -2.65865400      3.58013300
H          -0.82342600     -0.36767300      2.05943000
H           1.22919400     -3.64640000     -1.41659700
H           0.74947400     -2.11867900     -2.18555900
H           3.23003200     -2.59524600     -2.15805200
H           2.81556100     -2.42172000      0.83605400
H           4.79833400     -1.11492600      1.10083700
H           4.14458400     -4.17803300      0.70497800
H           5.64047900     -2.81926800     -0.67643900
H           4.03398600      2.76586000     -1.08336600
H           2.42533500      4.08849600      0.63353800
H           1.36733500     -1.10479800      3.35733900
H          -0.47817500      2.95058700      3.31322900
H           0.26452400      3.81786600      2.04158800
H          -1.65648500      1.82496600      0.72563000
H           1.32308400      1.24920500     -2.29534500
H          -2.16754500      4.08472400     -0.19136600
H          -0.93477900      4.92988400     -2.17962200
H           0.79296600      3.50369200     -3.26039000
          77
 Energy =    -2321.81106520 a.u.  Frame:     3 Step:     3 Geom:     3
C           3.57670000     -1.13952800      2.83467500
C           4.39317900      0.12097900      2.53183400
C           4.61854100      0.43910600      1.04341900
C           5.38493400      1.76840700      0.89654100
C           5.55597100      2.26140900     -0.54540000
C           5.34040800     -0.68238800      0.29046900
O           4.47349200     -1.82373700      0.05573200
C           3.56723000     -1.68846900     -0.91904300
O           3.48228400     -0.73485700     -1.66953900
C           2.64433800     -2.90224000     -1.00307500
C           3.21627200     -3.92184100     -1.99404600
N           1.30694000     -2.47212400     -1.41709500
P           0.21986200     -1.98516100     -0.24469600
O           0.66160100     -2.26115200      1.14329500
O          -1.16047500     -2.67427200     -0.69296200
C          -2.06744300     -3.16663700      0.31436700
C          -3.17904900     -2.18767400      0.61231200
C          -3.99204500     -1.72085300     -0.60150900
C          -4.66701300     -0.45310200     -0.04841300
C          -3.60411100      0.07599100      0.99655200
O          -2.63360600     -0.97876500      1.15057400
C          -4.28250400      0.27927100      2.29967000
N          -4.82399400      0.44361700      3.31260400
C          -2.91306800      1.36006600      0.64389900
C          -2.54206100      2.41643900      1.48000700
C          -1.84825600      3.37304600      0.72258500
C          -1.79281900      2.89230800     -0.58361700
N          -2.45757100      1.66310700     -0.61016600
N          -2.63388200      0.91162300     -1.73192800
C          -2.08246700      1.42931700     -2.80045500
N          -1.36394200      2.57393900     -2.92110000
C          -1.21845400      3.29848100     -1.82042700
N          -0.52075200      4.46563700     -1.89539000
O          -5.85950700     -0.91251300      0.57148300
O          -4.89484200     -2.68036700     -1.09070800
O          -0.11233300     -0.42985700     -0.61967500
C           0.59318700      0.62888300     -0.05429800
C           1.27679900      1.48875800     -0.91001700
C           1.90715700      2.61408400     -0.37798800
C           1.86655600      2.86252600      0.99611400
C           1.19147000      1.97758200      1.83973000
C           0.54306300      0.85748600      1.32024500
H           3.38265200     -1.21450800      3.91107100
H           2.61160100     -1.13527300      2.31893700
H           4.10257600     -2.04836300      2.52810700
H           3.88481000      0.98737500      2.97539600
H           5.37248400      0.05599000      3.03048200
H           3.64223000      0.57386700      0.56549000
H           4.83113300      2.52275900      1.46861900
H           6.36878400      1.68479000      1.38149400
H           5.70927200     -0.34241800     -0.67802800
H           6.17083600     -1.08875900      0.87380200
H           6.30390500      1.68224800     -1.09715700
H           4.61318000      2.18374400     -1.09579000
H           5.88212300      3.30753100     -0.56278000
H           2.56389600     -3.34547500     -0.01022300
H           2.55230900     -4.78812300     -2.05451100
H           3.30496400     -3.47843100     -2.99198700
H           4.20975900     -4.25180200     -1.67341800
H           1.33751900     -1.87300400     -2.23774800
H          -2.51358000     -4.07449000     -0.09935300
H          -1.50870300     -3.40804200      1.22180500
H          -3.85474300     -2.66285800      1.34184200
H          -3.30772800     -1.44509400     -1.40276000
H          -4.87542800      0.29695400     -0.81393600
H          -5.67930200     -2.62755400     -0.51641600
H          -6.32276300     -0.17294100      0.99380000
H          -2.76333200      2.46375700      2.53662500
H          -1.42763600      4.30126900      1.08072000
H          -2.21545300      0.84548500     -3.70623500
H           0.00500100      4.58734900     -2.75156800
H          -0.06818500      4.79229600     -1.05301900
H           1.30298900      1.27291500     -1.97119200
H          -0.00288200      0.16858700      1.95190400
H           2.44487200      3.28659600     -1.03970000
H           2.36846200      3.73328900      1.40817500
H           1.15685000      2.16287000      2.90913000
          77
 Energy =    -2321.81247270 a.u.  Frame:     4 Step:     4 Geom:     4
C          -4.71819000      2.22494300     -1.17390700
C          -4.44293600      0.80585000     -1.67483800
C          -5.49459000     -0.23784800     -1.25413300
C          -5.22244900     -1.58143300     -1.95769000
C          -6.21244200     -2.69910800     -1.61964000
C          -5.63321200     -0.40049900      0.26310800
O          -4.55831600     -1.21462300      0.80212600
C          -3.49882100     -0.60926300      1.34113100
O          -3.38383600      0.58852000      1.52355400
C          -2.44079500     -1.63344700      1.75909900
C          -2.56468800     -1.91478900      3.25914800
N          -1.09948000     -1.14667600      1.45711500
P          -0.57293700     -1.11806700     -0.12031900
O          -1.62016800     -1.31330600     -1.15223600
O           0.61513600     -2.20592700     -0.12214100
C           1.29500200     -2.55546400     -1.34546600
C           2.75039200     -2.11999000     -1.32118600
C           3.49781500     -2.47564200     -0.02367000
C           4.59404200     -1.39330100      0.04626000
C           3.95343200     -0.17066400     -0.71195900
O           2.82635600     -0.69555700     -1.44198600
C           4.93990100      0.35224200     -1.68594000
N           5.72717400      0.76436600     -2.43196800
C           3.47070100      0.99663200      0.10751200
C           3.42786800      2.34992300     -0.24520900
C           2.58179600      3.02547500      0.64844500
C           2.09725600      2.07381200      1.54482400
N           2.68717400      0.85090600      1.21507600
N           2.49407200     -0.30297100      1.90570200
C           1.58845900     -0.20807000      2.84327300
N           0.80418900      0.85605400      3.15847900
C           1.06071800      1.99251400      2.51647300
N           0.29984400      3.08526100      2.79528000
O           5.69449500     -1.94147500     -0.66460300
O           3.99798000     -3.78937000     -0.00516400
O           0.29012600      0.25137800     -0.21156500
C          -0.14834100      1.45008500     -0.76616700
C          -1.13360000      2.20475200     -0.13589600
C          -1.43700100      3.46790200     -0.64942500
C          -0.77022000      3.95479900     -1.77592800
C           0.19857000      3.16792100     -2.40364600
C           0.51577200      1.90732100     -1.89986800
H          -4.58230300      2.29964900     -0.09031800
H          -4.02706400      2.93472300     -1.63905800
H          -5.74034500      2.54421100     -1.41712400
H          -4.41589200      0.81285500     -2.77261600
H          -3.44719700      0.47676100     -1.35815900
H          -6.48099600      0.13010900     -1.58306800
H          -5.23966600     -1.39699200     -3.03957500
H          -4.20181800     -1.89952700     -1.71773100
H          -5.64467800      0.55810000      0.78334000
H          -6.53870700     -0.95661800      0.51237000
H          -6.02851300     -3.58179900     -2.24198700
H          -6.12329600     -3.01367200     -0.57415300
H          -7.25020900     -2.38411700     -1.79062900
H          -2.61656300     -2.54877800      1.19146100
H          -2.39317300     -0.99598900      3.83075300
H          -3.56443500     -2.28981800      3.49927000
H          -1.82222700     -2.65958600      3.55829900
H          -0.78803300     -0.37660100      2.04423900
H           1.26354700     -3.64630800     -1.41475600
H           0.77481300     -2.13263400     -2.20977900
H           3.25856700     -2.59471400     -2.17449000
H           2.82470200     -2.35924500      0.82151500
H           4.86610100     -1.12377000      1.06999900
H           4.83864200     -3.76518900     -0.49571900
H           6.42242800     -1.30179800     -0.69968600
H           3.94244800      2.77696400     -1.09404700
H           2.31882200      4.07306900      0.62318100
H           1.41723600     -1.11939300      3.40670800
H          -0.53139600      2.89013600      3.33994500
H           0.17943200      3.76333300      2.05420200
H          -1.66352300      1.80306600      0.72036800
H           1.28348700      1.28225900     -2.34109200
H          -2.21010100      4.06337000     -0.17247500
H          -1.01251400      4.93762000     -2.16951000
H           0.71485400      3.53771600     -3.28479100
          77
 Energy =    -2321.80760910 a.u.  Frame:     5 Step:     5 Geom:     5
C           3.48943700      2.21173200     -2.86059500
C           3.71565300      2.62354900     -1.40386600
C           4.37446800      1.51930900     -0.55695000
C           5.89133500      1.41726500     -0.79874200
C           6.51759300      0.10804100     -0.30759000
C           4.08702800      1.73876700      0.92927100
O           2.66968600      1.56979400      1.19356500
C           2.24954400      0.29845500      1.30763300
O           2.98391600     -0.66339600      1.38571900
C           0.72767500      0.25169300      1.36267500
C           0.26306000      0.25270300      2.82260900
N           0.22374500     -0.94665400      0.69298900
P           0.70460200     -1.30345100     -0.86657100
O           1.30128700     -0.18250500     -1.63184900
O          -0.60286200     -2.03315400     -1.49598300
C          -1.67837600     -1.28330400     -2.07486700
C          -2.91542200     -1.40037900     -1.19474200
C          -4.16170000     -0.74774500     -1.80343400
C          -4.19224200      0.64642900     -1.15851400
C          -3.57220100      0.36848900      0.26251600
O          -2.67568400     -0.73859800      0.06850700
C          -4.64153200     -0.04118600      1.20306700
N          -5.46538500     -0.36722000      1.95095100
C          -2.84059100      1.53216200      0.85659100
C          -2.99578600      2.16625100      2.09146100
C          -2.04272700      3.19397100      2.19389400
C          -1.29959900      3.18077600      1.01317900
N          -1.81421200      2.16267400      0.20565400
N          -1.32005400      1.82467400     -1.02109400
C          -0.28534200      2.54450700     -1.38609000
N           0.32223500      3.54988000     -0.71480900
C          -0.16933600      3.86425900      0.47662300
N           0.41730900      4.87378400      1.16738700
O          -5.45082600      1.24413500     -1.12913300
O          -5.36881900     -1.37587200     -1.39061500
O           1.70328100     -2.56794700     -0.81295700
C           1.44172600     -3.70100700     -0.03635800
C           1.85912600     -3.73003500      1.29151000
C           1.63735600     -4.88909700      2.03570800
C           1.00983800     -5.99525800      1.45817300
C           0.60041000     -5.94422200      0.12443000
C           0.81409900     -4.79138000     -0.63228000
H           3.03321600      3.02959200     -3.43094100
H           4.42595400      1.94307700     -3.36435800
H           2.82065500      1.34582200     -2.90082400
H           4.33773200      3.53107100     -1.35458200
H           2.74582800      2.88330000     -0.96778200
H           3.91788700      0.56064600     -0.83309200
H           6.07846300      1.51667400     -1.87467900
H           6.39305500      2.27650300     -0.32768400
H           4.64265300      1.04899100      1.56595800
H           4.30179900      2.76851700      1.22952900
H           7.59000700      0.07636000     -0.53093200
H           6.40166300     -0.02686300      0.77334400
H           6.04441400     -0.75237000     -0.79388800
H           0.37660000      1.15916900      0.87131300
H           0.65035100     -0.62904600      3.34094400
H           0.61329100      1.15615500      3.33075400
H          -0.83044900      0.24293400      2.86686000
H          -0.77447600     -1.07955000      0.83668000
H          -1.39704300     -0.23675400     -2.20518800
H          -1.88056100     -1.73240800     -3.05316000
H          -3.09758400     -2.45903500     -0.97585600
H          -4.10589800     -0.68392800     -2.89801700
H          -3.51229100      1.31431100     -1.68669100
H          -5.40965600     -2.27262700     -1.75400800
H          -6.09108400      0.53524900     -0.93607700
H          -3.74000300      1.89541900      2.82662900
H          -1.91425300      3.87282100      3.02512400
H           0.14804300      2.26665100     -2.33956900
H           1.31546900      5.17977500      0.81735300
H           0.26081200      4.95237100      2.16095200
H           2.33976200     -2.85228000      1.70592900
H           0.50437900     -4.72316500     -1.66920400
H           1.95885400     -4.92670500      3.07288200
H           0.84260700     -6.89435200      2.04435800
H           0.11452800     -6.80266600     -0.33095600
          77
 Energy =    -2321.80352090 a.u.  Frame:     6 Step:     6 Geom:     6
C           4.73370200      1.69009000     -1.16485500
C           3.36017100      2.35960600     -1.09169400
C           3.17687500      3.33626600      0.08637400
C           1.83061600      4.07006900     -0.06080300
C           1.49299300      5.04231000      1.07339100
C           3.31047300      2.67361400      1.46082100
O           2.14006100      1.87386600      1.74722500
C           2.22035000      0.54698100      1.51551000
O           3.23317500     -0.04215100      1.21530600
C           0.84877600     -0.08324600      1.71428200
C           0.63594100     -0.42291500      3.19296700
N           0.73333100     -1.30647000      0.91209200
P           0.71912400     -1.11849100     -0.75579700
O           0.34549000      0.21892600     -1.28052700
O          -0.18690600     -2.37630400     -1.24936100
C          -1.54410200     -2.17789000     -1.67626800
C          -2.50495000     -2.40251500     -0.51649600
C          -3.96930600     -2.12162800     -0.86678300
C          -4.44150500     -0.97138300      0.08224300
C          -3.16501200     -0.60438500      0.93811100
O          -2.12859800     -1.52955500      0.55917300
C          -3.42386400     -0.84298200      2.37348200
N          -3.56032200     -1.06239400      3.50405200
C          -2.67550300      0.80269500      0.76485400
C          -2.21932300      1.72890600      1.70612900
C          -1.75168200      2.86786200      1.02710400
C          -1.92221800      2.62680700     -0.33658500
N          -2.49492800      1.36163600     -0.46948100
N          -2.82029200      0.78153800     -1.65783600
C          -2.54029600      1.53280500     -2.69689100
N          -1.99506200      2.76671400     -2.73093000
C          -1.68345700      3.31389500     -1.56168500
N          -1.17450600      4.57194600     -1.55912800
O          -5.55408800     -1.34806100      0.85104900
O          -4.70155600     -3.31658800     -0.62404400
O           2.17985500     -1.54448700     -1.29208800
C           2.98315700     -2.56711700     -0.79273600
C           4.34552200     -2.29418400     -0.70796000
C           5.21328300     -3.29147300     -0.26885800
C           4.72196200     -4.54939900      0.08714100
C           3.35391800     -4.80518600     -0.00450600
C           2.47385100     -3.81800100     -0.45087500
H           4.89516000      1.01969500     -0.31641600
H           4.81511900      1.09016700     -2.07802000
H           5.54215900      2.43266500     -1.18075800
H           3.18870800      2.92720000     -2.01650300
H           2.57235400      1.59790800     -1.06541700
H           3.98693500      4.08254900      0.04423600
H           1.84925200      4.60871500     -1.01735800
H           1.04312400      3.31239200     -0.14422600
H           4.19867700      2.04464700      1.52817300
H           3.34161000      3.42188400      2.25563400
H           2.30686100      5.75631200      1.24926600
H           0.59609600      5.63633500      0.84919000
H           1.29973700      4.50983400      2.01006000
H           0.11120200      0.66580100      1.41131300
H           0.74031400      0.47694800      3.80588600
H          -0.37300600     -0.82281800      3.34419100
H           1.36630100     -1.16869100      3.52051200
H          -0.08762400     -1.83146700      1.19936600
H          -1.66464100     -1.17119100     -2.07705500
H          -1.73289500     -2.91754800     -2.46008800
H          -2.41803700     -3.43216500     -0.15349000
H          -4.07342900     -1.80264200     -1.90983900
H          -4.74670600     -0.09761300     -0.48734600
H          -5.62362100     -3.14729800     -0.87900100
H          -5.38567700     -2.25006200      1.17765700
H          -2.23449600      1.57285600      2.77546600
H          -1.34147100      3.76212500      1.47324900
H          -2.78737200      1.08798400     -3.65651800
H          -0.86687700      4.91568200     -2.45927800
H          -0.65479400      4.88960800     -0.75435500
H           4.69886500     -1.30476500     -0.97101900
H           1.41259700     -4.01570400     -0.53999400
H           6.27652500     -3.08024700     -0.19810800
H           5.40055400     -5.32353300      0.43320400
H           2.96239400     -5.78175800      0.26662200
          77
 Energy =    -2321.81051290 a.u.  Frame:     7 Step:     7 Geom:     7
C           3.48284200      2.19242100     -2.88119900
C           3.71904800      2.61462300     -1.42902100
C           4.37570500      1.51289100     -0.57708400
C           5.89130000      1.40231800     -0.82315100
C           6.51232600      0.09222400     -0.32779500
C           4.09421400      1.74306700      0.90860200
O           2.67760900      1.57697500      1.17945100
C           2.25730800      0.30670900      1.30325500
O           2.99104600     -0.65526400      1.38389400
C           0.73550500      0.26156700      1.36505400
C           0.27693900      0.27259700      2.82679400
N           0.22750100     -0.94039400      0.70525000
P           0.69329000     -1.30188700     -0.85884500
O           1.27415900     -0.18088500     -1.63595100
O          -0.61670700     -2.04339400     -1.46803400
C          -1.69750500     -1.31363800     -2.06109400
C          -2.92958600     -1.41581700     -1.17179000
C          -4.17608900     -0.76690200     -1.77841800
C          -4.17715000      0.65020100     -1.17337500
C          -3.56502800      0.39106400      0.25535900
O          -2.67470800     -0.72652300      0.08012500
C          -4.65422200     -0.04560100      1.16263300
N          -5.50551800     -0.48597000      1.81707800
C          -2.84378400      1.54885400      0.86048300
C          -3.00903800      2.18143300      2.09444900
C          -2.05550900      3.20831900      2.20437100
C          -1.30259000      3.19382800      1.02945800
N          -1.81130000      2.17713300      0.21813000
N          -1.30793800      1.83333400     -1.00327000
C          -0.27015500      2.55191900     -1.36196900
N           0.33158300      3.55909200     -0.68773400
C          -0.16773500      3.87648700      0.49941600
N           0.41381900      4.88677200      1.19199700
O          -5.43538300      1.25015200     -1.15584100
O          -5.39403500     -1.43806500     -1.46557600
O           1.70159900     -2.55802400     -0.80786900
C           1.44981300     -3.69427700     -0.03173900
C           1.87818700     -3.72455100      1.29252300
C           1.66612000     -4.88590800      2.03606900
C           1.03706700     -5.99261700      1.46132900
C           0.61637700     -5.94001000      0.13113200
C           0.82060500     -4.78512400     -0.62502300
H           3.03058700      3.00884300     -3.45675000
H           4.41511400      1.91245400     -3.38659400
H           2.80757300      1.33113200     -2.91160400
H           4.34722300      3.51836900     -1.39029200
H           2.75367200      2.88455900     -0.98903700
H           3.91431400      0.55428100     -0.84544800
H           6.07555800      1.49590500     -1.90009600
H           6.39861100      2.26125000     -0.35760400
H           4.65168600      1.05732200      1.54799200
H           4.31080800      2.77470800      1.20082400
H           7.58408900      0.05454900     -0.55315500
H           6.39786400     -0.03770400      0.75391600
H           6.03411100     -0.76792100     -0.80958900
H           0.38368200      1.16652100      0.86968400
H           0.66393200     -0.60697600      3.34899600
H           0.63164400      1.17809600      3.32815400
H          -0.81655400      0.26605500      2.87571900
H          -0.76914200     -1.07269400      0.85732200
H          -1.42078200     -0.26912900     -2.21845100
H          -1.90426400     -1.78881100     -3.02537600
H          -3.11374900     -2.46983600     -0.93762900
H          -4.13875600     -0.73372600     -2.86961700
H          -3.48268600      1.29711800     -1.71031300
H          -5.39084700     -1.69108100     -0.52607800
H          -6.07909200      0.51574400     -1.14064200
H          -3.75913000      1.91262000      2.82491800
H          -1.93311200      3.88707700      3.03651200
H           0.17136400      2.27059400     -2.31054200
H           1.31214500      5.19709900      0.84642600
H           0.24523500      4.97503900      2.18264600